 Gaussian 16, Revision A.03,
 Gaussian 16:  ES64L-G16RevA.03 25-Dec-2016

 ----------------------------------------------------------------------
 # bp86/6-31G(d) FOpt=(Tight) Freq SCF=(xqc,MaxCycle=300) Int=(Grid=Ult
 raFine)
 ----------------------------------------------------------------------

 --------------------
 mg13 - coh - opt geo
 --------------------
 Symbolic Z-matrix:
 Charge =  0 Multiplicity = 1

 SCF Done:  E(RB-P86) =  -2601.16043443     A.U. after   18 cycles
 SCF Done:  E(RB-P86) =  -2601.16043617     A.U. after   11 cycles
 SCF Done:  E(RB-P86) =  -2601.16043920     A.U. after   12 cycles
 SCF Done:  E(RB-P86) =  -2601.16043961     A.U. after   10 cycles
 SCF Done:  E(RB-P86) =  -2601.16044098     A.U. after   12 cycles
 SCF Done:  E(RB-P86) =  -2601.16044141     A.U. after   11 cycles
 SCF Done:  E(RB-P86) =  -2601.16044206     A.U. after   12 cycles
 SCF Done:  E(RB-P86) =  -2601.16044284     A.U. after   12 cycles
 SCF Done:  E(RB-P86) =  -2601.16044468     A.U. after   13 cycles
 SCF Done:  E(RB-P86) =  -2601.16044685     A.U. after   13 cycles
 SCF Done:  E(RB-P86) =  -2601.16097444     A.U. after    8 cycles
 SCF Done:  E(RB-P86) =  -2601.16097443     A.U. after    8 cycles
 SCF Done:  E(RB-P86) =  -2601.16097441     A.U. after    7 cycles
 SCF Done:  E(RB-P86) =  -2601.16097440     A.U. after    7 cycles
 SCF Done:  E(RB-P86) =  -2601.16097441     A.U. after   10 cycles
 SCF Done:  E(RB-P86) =  -2601.16097440     A.U. after    8 cycles
 SCF Done:  E(RB-P86) =  -2601.16097438     A.U. after    7 cycles
 SCF Done:  E(RB-P86) =  -2601.16097440     A.U. after   10 cycles
 SCF Done:  E(RB-P86) =  -2601.16097437     A.U. after    8 cycles
 Optimization completed.
    -- Stationary point found.
 Normal termination of Gaussian 16 at Fri Sep  4 13:32:31 2020.

 -------------------------------------------------------------------
 #N Geom=AllCheck Guess=TCheck SCRF=Check GenChk RBP86/6-31G(d) Freq
 -------------------------------------------------------------------

 Structure from the checkpoint file:  "geo-000003-01.chk"
 --------------------
 mg13 - coh - opt geo
 --------------------
 Charge =  0 Multiplicity = 1

                         Standard orientation:
 ---------------------------------------------------------------------
 Center     Atomic      Atomic             Coordinates (Angstroms)
 Number     Number       Type             X           Y           Z
 ---------------------------------------------------------------------
      1         12           0        0.780722   -0.307197    1.302639
      2         12           0       -2.241744   -1.200171   -1.992727
      3         12           0       -0.118483    1.004845   -1.688355
      4         12           0        4.048328    0.875269    1.164073
      5         12           0       -1.782433   -0.363904    2.988884
      6         12           0       -3.148276    1.651080   -1.620977
      7         12           0        0.725700   -1.924786   -1.368335
      8         12           0        1.471275    2.503656    0.432519
      9         12           0        3.227291    0.471491   -1.697365
     10         12           0       -1.433242    1.871970    0.941503
     11         12           0        3.539673   -1.921203    0.130085
     12         12           0       -3.700642   -0.303852    0.652799
     13         12           0       -1.368168   -2.357198    0.755256
 ---------------------------------------------------------------------

 SCF Done:  E(RB-P86) =  -2601.16097437     A.U. after    1 cycles

 The electronic state is 1-A.
 Alpha  occ. eigenvalues --  -46.27268 -46.27049 -46.26945 -46.26754 -46.26723
 Alpha  occ. eigenvalues --  -46.26677 -46.26651 -46.26495 -46.26442 -46.26435
 Alpha  occ. eigenvalues --  -46.26309 -46.26188 -46.25903  -2.93761  -2.93577
 Alpha  occ. eigenvalues --   -2.93511  -2.93263  -2.93227  -2.93227  -2.93119
 Alpha  occ. eigenvalues --   -2.92951  -2.92913  -2.92802  -2.92797  -2.92649
 Alpha  occ. eigenvalues --   -2.92351  -1.73016  -1.72963  -1.72847  -1.72833
 Alpha  occ. eigenvalues --   -1.72766  -1.72757  -1.72697  -1.72687  -1.72620
 Alpha  occ. eigenvalues --   -1.72542  -1.72497  -1.72495  -1.72425  -1.72402
 Alpha  occ. eigenvalues --   -1.72401  -1.72371  -1.72368  -1.72355  -1.72341
 Alpha  occ. eigenvalues --   -1.72267  -1.72252  -1.72236  -1.72205  -1.72088
 Alpha  occ. eigenvalues --   -1.72073  -1.72063  -1.72060  -1.72045  -1.72009
 Alpha  occ. eigenvalues --   -1.71989  -1.71967  -1.71936  -1.71922  -1.71916
 Alpha  occ. eigenvalues --   -1.71808  -1.71759  -1.71615  -1.71510  -1.71489
 Alpha  occ. eigenvalues --   -0.31640  -0.27926  -0.24974  -0.24725  -0.22728
 Alpha  occ. eigenvalues --   -0.20179  -0.19292  -0.16877  -0.16111  -0.15686
 Alpha  occ. eigenvalues --   -0.14910  -0.14602  -0.13968
 Alpha virt. eigenvalues --   -0.11264  -0.10580  -0.10339  -0.09405  -0.08592
 Alpha virt. eigenvalues --   -0.08535  -0.08175  -0.07904  -0.07598  -0.07280
 Alpha virt. eigenvalues --   -0.06192  -0.05885  -0.05058  -0.03107  -0.01885

 Mulliken charges:
               1
     1  Mg   0.333885
     2  Mg  -0.028361
     3  Mg   0.148521
     4  Mg  -0.092340
     5  Mg  -0.179749
     6  Mg  -0.146298
     7  Mg  -0.023519
     8  Mg  -0.048236
     9  Mg  -0.006466
    10  Mg   0.062438
    11  Mg  -0.079814
    12  Mg   0.015910
    13  Mg   0.044029
 Sum of Mulliken charges =  -0.00000

 Dipole moment (field-independent basis, Debye):
    X=              0.2123    Y=              0.0444    Z=              0.1705  Tot=              0.2759
 Quadrupole moment (field-independent basis, Debye-Ang):
   XX=           -151.7693   YY=           -148.5036   ZZ=           -150.5254
   XY=              0.5773   XZ=              1.3326   YZ=             -0.1937

  Exact polarizability:1084.416  -9.363 705.620  13.503  -6.355 715.378
 Approx polarizability:6574.385 -38.5153559.019 150.337  -9.4363551.217

                      1                      2                      3
                      A                      A                      A
 Frequencies --     29.8750                34.3868                54.6261
 Red. masses --     23.9850                23.9850                23.9850
 Frc consts  --      0.0126                 0.0167                 0.0422
 IR Inten    --      0.0301                 0.0094                 0.0425

                      4                      5                      6
                      A                      A                      A
 Frequencies --     66.2192                72.5785                76.8666
 Red. masses --     23.9850                23.9850                23.9850
 Frc consts  --      0.0620                 0.0744                 0.0835
 IR Inten    --      0.0894                 0.1551                 0.0922

                      7                      8                      9
                      A                      A                      A
 Frequencies --     90.3458                91.5138               103.4649
 Red. masses --     23.9850                23.9850                23.9850
 Frc consts  --      0.1153                 0.1183                 0.1513
 IR Inten    --      0.1051                 0.0902                 0.0535

                     10                     11                     12
                      A                      A                      A
 Frequencies --    104.9165               113.0651               115.7180
 Red. masses --     23.9850                23.9850                23.9850
 Frc consts  --      0.1556                 0.1807                 0.1892
 IR Inten    --      0.0068                 0.2225                 0.0399

                     13                     14                     15
                      A                      A                      A
 Frequencies --    123.8013               125.8233               131.3898
 Red. masses --     23.9850                23.9850                23.9850
 Frc consts  --      0.2166                 0.2237                 0.2440
 IR Inten    --      1.3445                 0.3237                 0.3058

                     16                     17                     18
                      A                      A                      A
 Frequencies --    136.5237               139.5003               149.1626
 Red. masses --     23.9850                23.9850                23.9850
 Frc consts  --      0.2634                 0.2750                 0.3144
 IR Inten    --      0.5492                 0.1746                 0.1841

                     19                     20                     21
                      A                      A                      A
 Frequencies --    153.4902               160.4063               168.2557
 Red. masses --     23.9850                23.9850                23.9850
 Frc consts  --      0.3329                 0.3636                 0.4001
 IR Inten    --      0.3670                 0.3094                 0.0232

                     22                     23                     24
                      A                      A                      A
 Frequencies --    174.9882               178.5462               180.7839
 Red. masses --     23.9850                23.9850                23.9850
 Frc consts  --      0.4327                 0.4505                 0.4619
 IR Inten    --      0.0963                 0.0688                 0.0911

                     25                     26                     27
                      A                      A                      A
 Frequencies --    186.9527               193.4514               200.4671
 Red. masses --     23.9850                23.9850                23.9850
 Frc consts  --      0.4939                 0.5289                 0.5679
 IR Inten    --      0.0718                 0.5090                 0.5236

                     28                     29                     30
                      A                      A                      A
 Frequencies --    202.0581               207.5343               219.6279
 Red. masses --     23.9850                23.9850                23.9850
 Frc consts  --      0.5770                 0.6087                 0.6817
 IR Inten    --      0.2820                 0.1030                 0.0434

                     31                     32                     33
                      A                      A                      A
 Frequencies --    224.0440               230.0695               238.0155
 Red. masses --     23.9850                23.9850                23.9850
 Frc consts  --      0.7093                 0.7480                 0.8006
 IR Inten    --      0.2394                 0.8092                 0.5633

 - Thermochemistry -
 -------------------
 Temperature   298.150 Kelvin.  Pressure   1.00000 Atm.
 Atom     1 has atomic number 12 and mass  23.98504

 Molecular mass:   311.80559 amu.
 Principal axes and moments of inertia in atomic units:
                           1         2         3
     Eigenvalues --  4923.566669135.508029215.47947
           X            1.00000  -0.00000   0.00000
           Y            0.00000   1.00000   0.00000
           Z           -0.00000  -0.00000   1.00000
 This molecule is an asymmetric top.
 Rotational symmetry number  1.
 Warning -- assumption of classical behavior for rotation
           may cause significant error
 Rotational temperatures (Kelvin)      0.01759     0.00948     0.00940
 Rotational constants (GHZ):           0.36655     0.19755     0.19584
 Zero-point vibrational energy      27983.5 (Joules/Mol)
                                    6.68821 (Kcal/Mol)
 Warning -- explicit consideration of  33 degrees of freedom as
           vibrations may cause significant error
 Vibrational temperatures:     42.98    49.47    78.59    95.27   104.42
          (Kelvin)            110.59   129.99   131.67   148.86   150.95
                              162.68   166.49   178.12   181.03   189.04
                              196.43   200.71   214.61   220.84   230.79
                              242.08   251.77   256.89   260.11   268.98
                              278.33   288.43   290.72   298.60   316.00
                              322.35   331.02   342.45

 Zero-point correction=                           0.010658 (Hartree/Particle)
 Thermal correction to Energy=                    0.035385
 Thermal correction to Enthalpy=                  0.036329
 Thermal correction to Gibbs Free Energy=        -0.047578
 Sum of electronic and zero-point Energies=          -2601.150316
 Sum of electronic and thermal Energies=             -2601.125589
 Sum of electronic and thermal Enthalpies=           -2601.124645
 Sum of electronic and thermal Free Energies=        -2601.208552

                     E (Thermal)             CV                S
                      KCal/Mol        Cal/Mol-Kelvin    Cal/Mol-Kelvin
 Total                   22.204             68.680            176.597
 Electronic               0.000              0.000              0.000
 Translational            0.889              2.981             43.108
 Rotational               0.889              2.981             34.382
 Vibrational             20.427             62.719             99.107
 Vibration     1          0.594              1.984              5.838
 Vibration     2          0.594              1.983              5.559
 Vibration     3          0.596              1.976              4.642
 Vibration     4          0.598              1.970              4.263
 Vibration     5          0.599              1.967              4.082
 Vibration     6          0.599              1.965              3.969
 Vibration     7          0.602              1.956              3.653
 Vibration     8          0.602              1.955              3.627
 Vibration     9          0.605              1.946              3.388
 Vibration    10          0.605              1.945              3.361
 Vibration    11          0.607              1.939              3.216
 Vibration    12          0.608              1.936              3.171
 Vibration    13          0.610              1.929              3.040
 Vibration    14          0.611              1.927              3.009
 Vibration    15          0.612              1.922              2.926
 Vibration    16          0.614              1.917              2.852
 Vibration    17          0.615              1.914              2.811
 Vibration    18          0.618              1.904              2.683
 Vibration    19          0.619              1.899              2.629
 Vibration    20          0.622              1.891              2.545
 Vibration    21          0.625              1.882              2.455
 Vibration    22          0.627              1.873              2.381
 Vibration    23          0.629              1.869              2.344
 Vibration    24          0.630              1.866              2.320
 Vibration    25          0.632              1.858              2.258
 Vibration    26          0.635              1.849              2.195
 Vibration    27          0.638              1.839              2.129
 Vibration    28          0.639              1.837              2.114
 Vibration    29          0.641              1.829              2.065
 Vibration    30          0.647              1.811              1.962
 Vibration    31          0.649              1.804              1.926
 Vibration    32          0.652              1.795              1.878
 Vibration    33          0.656              1.782              1.818

                           ! Non-Optimized Parameters !
 Normal termination of Gaussian 16 at Fri Sep  4 13:37:17 2020.
